 TITLE = "3D surface" 
 VARIABLES = "X", "Y", "Z" 
 ZONE T="TRIANGLES", N=            8 , E=           12 , DATAPACKING=POINT, 
 ZONETYPE=FETRIANGLE
   9.00000036E-02 -0.100000001      -9.99999978E-03
  0.100000001     -0.100000001      -9.99999978E-03
  0.100000001     -0.100000001       9.99999978E-03
   9.00000036E-02 -0.100000001       9.99999978E-03
   9.00000036E-02  0.100000001      -9.99999978E-03
  0.100000001      0.100000001      -9.99999978E-03
  0.100000001      0.100000001       9.99999978E-03
   9.00000036E-02  0.100000001       9.99999978E-03
           1           2           3
           3           4           1
           5           8           7
           7           6           5
           1           5           6
           6           2           1
           3           7           8
           8           4           3
           2           6           7
           7           3           2
           4           8           5
           5           1           4
